REMARK  Name = 
REMARK  4 active torsions:
REMARK  status: ('A' for Active; 'I' for Inactive)
REMARK    1  A    between atoms: C_3  and  C_10
REMARK    2  A    between atoms: C_10  and  C_12
REMARK    3  A    between atoms: C_12  and  C_13
REMARK    4  A    between atoms: C_13  and  C_15
REMARK                            x       y       z     vdW  Elec       q    Type
REMARK                         _______ _______ _______ _____ _____    ______ ____
ROOT
ATOM      1  C   UNL     1       0.000   0.000   0.000  1.00  0.00    +0.000 C 
ATOM      2  O   UNL     1       0.000   0.000   0.000  1.00  0.00    +0.000 OA
ENDROOT
BRANCH   1   5
ATOM      3  C   UNL     1       0.000   0.000   0.000  1.00  0.00    +0.000 C 
ATOM      4  C   UNL     1       0.000   0.000   0.000  1.00  0.00    +0.000 A 
ATOM      5  C   UNL     1       0.000   0.000   0.000  1.00  0.00    +0.000 A 
ATOM      6  C   UNL     1       0.000   0.000   0.000  1.00  0.00    +0.000 A 
ATOM      7  C   UNL     1       0.000   0.000   0.000  1.00  0.00    +0.000 A 
ATOM      8  C   UNL     1       0.000   0.000   0.000  1.00  0.00    +0.000 A 
ATOM      9  C   UNL     1       0.000   0.000   0.000  1.00  0.00    +0.000 A 
ATOM     10  O   UNL     1       0.000   0.000   0.000  1.00  0.00    +0.000 OA
ATOM     11  O   UNL     1       0.000   0.000   0.000  1.00  0.00    +0.000 OA
ENDBRANCH   1   5
BRANCH   1  12
ATOM     12  C   UNL     1       0.000   0.000   0.000  1.00  0.00    +0.000 C 
BRANCH  12  13
ATOM     13  C   UNL     1       0.000   0.000   0.000  1.00  0.00    +0.000 C 
ATOM     14  O   UNL     1       0.000   0.000   0.000  1.00  0.00    +0.000 OA
BRANCH  13  15
ATOM     15  C   UNL     1       0.000   0.000   0.000  1.00  0.00    +0.000 A 
ATOM     16  C   UNL     1       0.000   0.000   0.000  1.00  0.00    +0.000 A 
ATOM     17  C   UNL     1       0.000   0.000   0.000  1.00  0.00    +0.000 A 
ATOM     18  C   UNL     1       0.000   0.000   0.000  1.00  0.00    +0.000 A 
ATOM     19  C   UNL     1       0.000   0.000   0.000  1.00  0.00    +0.000 A 
ATOM     20  C   UNL     1       0.000   0.000   0.000  1.00  0.00    +0.000 A 
ATOM     21  O   UNL     1       0.000   0.000   0.000  1.00  0.00    +0.000 OA
ATOM     22  O   UNL     1       0.000   0.000   0.000  1.00  0.00    +0.000 OA
ENDBRANCH  13  15
ENDBRANCH  12  13
ENDBRANCH   1  12
TORSDOF 4
