REMARK  Name = 
REMARK  5 active torsions:
REMARK  status: ('A' for Active; 'I' for Inactive)
REMARK    1  A    between atoms: C_2  and  C_4
REMARK    2  A    between atoms: C_5  and  C_6
REMARK    3  A    between atoms: C_5  and  C_13
REMARK    4  A    between atoms: C_13  and  C_15
REMARK    5  A    between atoms: C_16  and  C_17
REMARK                            x       y       z     vdW  Elec       q    Type
REMARK                         _______ _______ _______ _____ _____    ______ ____
ROOT
ATOM      1  C   UNL     1       0.000   0.000   0.000  1.00  0.00    +0.000 C 
ATOM      2  C   UNL     1       0.000   0.000   0.000  1.00  0.00    +0.000 C 
ENDROOT
BRANCH   2   3
ATOM      3  C   UNL     1       0.000   0.000   0.000  1.00  0.00    +0.000 A 
ATOM      4  C   UNL     1       0.000   0.000   0.000  1.00  0.00    +0.000 A 
ATOM      5  C   UNL     1       0.000   0.000   0.000  1.00  0.00    +0.000 A 
ATOM      6  C   UNL     1       0.000   0.000   0.000  1.00  0.00    +0.000 A 
ATOM      7  O   UNL     1       0.000   0.000   0.000  1.00  0.00    +0.000 OA
ATOM      8  C   UNL     1       0.000   0.000   0.000  1.00  0.00    +0.000 A 
ATOM      9  C   UNL     1       0.000   0.000   0.000  1.00  0.00    +0.000 A 
ENDBRANCH   2   3
BRANCH   1  11
ATOM     10  C   UNL     1       0.000   0.000   0.000  1.00  0.00    +0.000 C 
ATOM     11  C   UNL     1       0.000   0.000   0.000  1.00  0.00    +0.000 C 
ATOM     12  O   UNL     1       0.000   0.000   0.000  1.00  0.00    +0.000 OA
ENDBRANCH   1  11
BRANCH   2  13
ATOM     13  C   UNL     1       0.000   0.000   0.000  1.00  0.00    +0.000 C 
ATOM     14  O   UNL     1       0.000   0.000   0.000  1.00  0.00    +0.000 OA
BRANCH  13  15
ATOM     15  C   UNL     1       0.000   0.000   0.000  1.00  0.00    +0.000 C 
ATOM     16  C   UNL     1       0.000   0.000   0.000  1.00  0.00    +0.000 C 
BRANCH  16  17
ATOM     17  C   UNL     1       0.000   0.000   0.000  1.00  0.00    +0.000 A 
ATOM     18  C   UNL     1       0.000   0.000   0.000  1.00  0.00    +0.000 A 
ATOM     19  C   UNL     1       0.000   0.000   0.000  1.00  0.00    +0.000 A 
ATOM     20  C   UNL     1       0.000   0.000   0.000  1.00  0.00    +0.000 A 
ATOM     21  O   UNL     1       0.000   0.000   0.000  1.00  0.00    +0.000 OA
ATOM     22  C   UNL     1       0.000   0.000   0.000  1.00  0.00    +0.000 A 
ATOM     23  C   UNL     1       0.000   0.000   0.000  1.00  0.00    +0.000 A 
ENDBRANCH  16  17
ENDBRANCH  13  15
ENDBRANCH   2  13
TORSDOF 5
